V -t * -v 1.0a5 -a 0
A -t * -n 1 -p 0 -o 0x7fffffff -c 30 -a 1
A -t * -h 1 -m 1073741823 -s 0
n -t 0.000000 -s 0 -x 101.233377 -y 616.298264 -U 16.344521 -V -7.405042 -T 52.567780
n -t 0.000000 -s 1 -x 545.477497 -y 450.247384 -U -10.956116 -V 7.905051 -T 41.679910
n -t 0.000000 -s 2 -x 71.905261 -y 125.069013 -U 11.677467 -V -1.462225 -T 58.262848
n -t 0.000000 -s 3 -x 350.230691 -y 257.249497 -U -3.993316 -V 9.942658 -T 32.768005
n -t 0.000000 -s 4 -x 163.039810 -y 787.906385 -U 0.044960 -V -1.034144 -T 140.733590
n -t 0.000000 -s 5 -x 102.427194 -y 618.336966 -U 10.426164 -V 5.822905 -T 52.110251
n -t 0.000000 -s 6 -x 498.580566 -y 182.000061 -U -8.000274 -V 15.076317 -T 53.825813
n -t 0.000000 -s 7 -x 790.253171 -y 902.656450 -U -5.041887 -V -3.187087 -T 70.242496
n -t 0.000000 -s 8 -x 599.782062 -y 239.180821 -U -12.035252 -V 0.665064 -T 43.384144
n -t 0.000000 -s 9 -x 411.455886 -y 365.520262 -U 8.592102 -V 12.652746 -T 44.233964
n -t 0.000000 -s 10 -x 272.555350 -y 731.432833 -U -1.253133 -V -2.514552 -T 54.761286
n -t 0.000000 -s 11 -x 471.599427 -y 265.157939 -U -2.788910 -V -4.322469 -T 53.952555
n -t 0.000000 -s 12 -x 171.883446 -y 502.698294 -U -0.492291 -V 4.974063 -T 64.013395
n -t 0.000000 -s 13 -x 494.544059 -y 265.828203 -U 16.348017 -V 7.769136 -T 24.674993
n -t 0.000000 -s 14 -x 457.894240 -y 657.646884 -U 0.366265 -V -0.526115 -T 358.182976
n -t 0.000000 -s 15 -x 507.575003 -y 20.378434 -U -0.164107 -V 1.258069 -T 129.270848
n -t 0.000000 -s 16 -x 481.160720 -y 846.521289 -U 6.806849 -V -3.885958 -T 50.889725
n -t 0.000000 -s 17 -x 818.540174 -y 702.302042 -U -8.110452 -V 1.149577 -T 96.003921
n -t 0.000000 -s 18 -x 666.136270 -y 635.644238 -U -9.425059 -V -6.257907 -T 42.642504
n -t 0.000000 -s 19 -x 915.803971 -y 916.769861 -U -0.970547 -V -0.992907 -T 534.082786
n -t 0.000000 -s 20 -x 351.800723 -y 788.932322 -U 1.455197 -V -0.438128 -T 114.332412
n -t 0.000000 -s 21 -x 511.431300 -y 286.445610 -U -0.274006 -V 17.047609 -T 33.632105
n -t 0.000000 -s 22 -x 861.515933 -y 963.126460 -U -5.723283 -V -2.219850 -T 115.075664
n -t 0.000000 -s 23 -x 497.092227 -y 677.016117 -U -17.430180 -V 2.063453 -T 14.969559
n -t 0.000000 -s 24 -x 172.052714 -y 151.815113 -U 8.122573 -V 7.651806 -T 91.762837
n -t 0.000000 -s 25 -x 366.541909 -y 87.062675 -U -9.126363 -V 11.301096 -T 11.274379
n -t 0.000000 -s 26 -x 695.809605 -y 990.123458 -U -2.417481 -V -1.921966 -T 242.968424
n -t 0.000000 -s 27 -x 98.581173 -y 868.578844 -U 3.984804 -V -9.948611 -T 77.907030
n -t 0.000000 -s 28 -x 691.167680 -y 925.426000 -U 9.058060 -V -17.042955 -T 17.539995
n -t 0.000000 -s 29 -x 455.369891 -y 998.538291 -U -0.333096 -V -0.316024 -T 1317.535493
n -t 11.274379 -s 25 -x 263.647833 -y 214.475514 -U 0.560589 -V -0.798646 -T 91.102978
n -t 14.969559 -s 23 -x 236.170118 -y 707.905098 -U -6.630594 -V 13.930172 -T 12.258407
n -t 17.539995 -s 28 -x 850.046011 -y 626.492656 -U -6.890077 -V 11.796102 -T 5.247945
n -t 22.787939 -s 28 -x 813.887270 -y 688.397949 -U -3.469882 -V 3.211639 -T 9.964051
n -t 24.674993 -s 13 -x 897.931257 -y 457.531579 -U -6.167459 -V -3.128098 -T 108.841480
n -t 27.227966 -s 23 -x 154.889594 -y 878.666826 -U 13.196616 -V -4.216204 -T 61.395196
n -t 32.751991 -s 28 -x 779.313189 -y 720.398889 -U 2.727374 -V 0.867073 -T 60.010855
n -t 32.768005 -s 3 -x 219.377678 -y 583.050556 -U 6.835682 -V -15.174869 -T 26.245771
n -t 33.632105 -s 21 -x 502.215913 -y 859.792578 -U -6.996097 -V 2.995464 -T 6.957316
n -t 40.589421 -s 21 -x 453.541860 -y 880.632966 -U 7.707964 -V -6.902435 -T 54.465816
n -t 41.679910 -s 1 -x 88.827569 -y 779.729208 -U 19.111009 -V 4.110621 -T 42.331077
n -t 42.642504 -s 18 -x 264.228140 -y 368.791434 -U -0.406738 -V 5.241479 -T 78.699334
n -t 43.384144 -s 8 -x 77.642937 -y 268.034056 -U 13.126672 -V 10.769654 -T 38.610080
n -t 44.233964 -s 9 -x 791.518623 -y 925.201357 -U -5.138409 -V -10.590848 -T 67.617908
n -t 50.889725 -s 16 -x 827.559372 -y 648.765963 -U -11.457607 -V -13.458018 -T 27.576837
n -t 52.110251 -s 5 -x 645.737238 -y 921.770022 -U -17.471747 -V -4.591792 -T 25.702828
n -t 52.567780 -s 0 -x 960.428570 -y 227.031643 -U -0.414126 -V 1.128606 -T 454.821229
n -t 53.825813 -s 6 -x 67.959329 -y 993.495092 -U 8.213612 -V -9.846378 -T 50.619628
n -t 53.952555 -s 11 -x 321.130588 -y 31.949689 -U -0.032984 -V 0.140893 -T 4349.761493
n -t 54.761286 -s 10 -x 203.932165 -y 593.732746 -U 7.807373 -V -9.769167 -T 37.646498
n -t 58.262848 -s 2 -x 752.267739 -y 39.875613 -U -8.424016 -V 2.774717 -T 82.829882
n -t 59.013776 -s 3 -x 398.785417 -y 184.774427 -U 5.895894 -V 11.505528 -T 65.208742
n -t 64.013395 -s 12 -x 140.370221 -y 821.104921 -U 0.756722 -V -1.634069 -T 265.539384
n -t 70.242496 -s 7 -x 436.098443 -y 678.787538 -U 11.570988 -V -10.976139 -T 36.900158
n -t 77.813079 -s 5 -x 196.663936 -y 803.747985 -U 1.998758 -V -8.671601 -T 40.791376
n -t 77.907030 -s 27 -x 409.025406 -y 93.512146 -U 3.734341 -V 19.497124 -T 40.998661
n -t 78.466562 -s 16 -x 511.594810 -y 277.636405 -U 9.938269 -V 8.521004 -T 11.195361
n -t 81.994224 -s 8 -x 584.464785 -y 683.851261 -U -7.933302 -V -9.630694 -T 67.939495
n -t 84.010987 -s 1 -x 897.817161 -y 953.736214 -U -0.737517 -V -4.185763 -T 171.804872
n -t 88.623163 -s 23 -x 965.098441 -y 619.812176 -U -15.022194 -V -6.711805 -T 26.491473
n -t 89.661923 -s 16 -x 622.857316 -y 373.032127 -U -13.568392 -V 11.854106 -T 10.768418
n -t 91.762837 -s 24 -x 917.403024 -y 853.966539 -U -9.898246 -V -1.390524 -T 33.123260
n -t 92.407784 -s 10 -x 497.852437 -y 225.957802 -U -1.883791 -V 8.386541 -T 53.449240
n -t 92.762846 -s 28 -x 942.985224 -y 772.432684 -U -17.307483 -V -7.051137 -T 20.079681
n -t 95.055238 -s 21 -x 873.362432 -y 504.686233 -U -6.744908 -V -18.634587 -T 13.957706
n -t 96.003921 -s 17 -x 39.904981 -y 812.665956 -U 10.789117 -V -12.245132 -T 48.965660
n -t 100.430340 -s 16 -x 476.747204 -y 500.682085 -U -9.511800 -V -6.966163 -T 44.717186
n -t 102.377358 -s 25 -x 314.719180 -y 141.716515 -U 6.761179 -V 3.226566 -T 100.131350
n -t 104.445441 -s 6 -x 483.729335 -y 495.075122 -U -1.986661 -V -1.589692 -T 139.159466
n -t 107.142654 -s 7 -x 863.069731 -y 273.766264 -U -0.239326 -V -11.327968 -T 12.160676
n -t 109.012944 -s 21 -x 779.218983 -y 244.590137 -U -4.782503 -V -3.248865 -T 35.228157
n -t 111.851872 -s 9 -x 444.070133 -y 209.070364 -U 0.738082 -V 0.864986 -T 197.686353
n -t 112.842527 -s 28 -x 595.456471 -y 630.848105 -U 0.421842 -V -11.377885 -T 41.078796
n -t 114.332412 -s 20 -x 518.176889 -y 738.840078 -U -4.501975 -V 6.036196 -T 34.676982
n -t 115.075664 -s 22 -x 202.905371 -y 707.675797 -U 3.673651 -V -1.083537 -T 164.612606
n -t 115.114636 -s 23 -x 567.138385 -y 442.006563 -U 7.734669 -V -13.277316 -T 30.795871
n -t 118.604455 -s 5 -x 278.196024 -y 450.021441 -U -3.039336 -V -6.084199 -T 43.777101
n -t 118.905691 -s 27 -x 562.128406 -y 892.868125 -U -5.700214 -V 0.090600 -T 88.282597
n -t 119.303331 -s 7 -x 860.159360 -y 136.010506 -U -6.085061 -V 15.194264 -T 39.484391
n -t 121.341838 -s 18 -x 232.218103 -y 781.292357 -U 12.261530 -V -1.287193 -T 21.200241
n -t 124.222518 -s 3 -x 783.249253 -y 935.035464 -U -6.303655 -V -6.956293 -T 97.797281
n -t 124.886097 -s 24 -x 589.540852 -y 807.907839 -U -3.883770 -V -5.998500 -T 23.999149
n -t 129.270848 -s 15 -x 486.360710 -y 183.010110 -U 1.031356 -V -5.882114 -T 23.155892
n -t 133.516473 -s 13 -x 226.655875 -y 117.064811 -U 4.278488 -V 2.690446 -T 152.343273
n -t 140.733590 -s 4 -x 169.367155 -y 642.367645 -U 4.186622 -V 8.341618 -T 24.774141
n -t 141.092730 -s 2 -x 54.507464 -y 269.705084 -U 0.070220 -V -0.227960 -T 304.141115
n -t 142.542079 -s 18 -x 492.165500 -y 754.003552 -U 0.273623 -V 0.321699 -T 692.897034
n -t 144.241101 -s 21 -x 610.740211 -y 130.138614 -U -7.726961 -V 12.527045 -T 49.434317
n -t 144.969580 -s 17 -x 568.201230 -y 213.074976 -U 18.388626 -V -7.361696 -T 7.690958
n -t 145.147526 -s 16 -x 51.406283 -y 189.174870 -U 6.931310 -V -9.795317 -T 7.678768
n -t 145.857024 -s 10 -x 397.165225 -y 674.212030 -U -3.571096 -V -5.616326 -T 75.539559
n -t 145.910507 -s 23 -x 805.334255 -y 33.120033 -U -0.167763 -V 0.708845 -T 603.720287
n -t 148.885246 -s 24 -x 496.333670 -y 663.948932 -U -1.246091 -V 7.778282 -T 13.683712
n -t 149.009394 -s 20 -x 362.061991 -y 948.157135 -U -0.606320 -V -1.248360 -T 330.299222
n -t 149.933718 -s 8 -x 45.480258 -y 29.546764 -U 5.533898 -V 4.426547 -T 171.086727
