M 0.00000 0 (101.23, 616.30, 0.00), (960.43, 227.03), 17.94
M 0.00000 1 (545.48, 450.25, 0.00), (88.83, 779.73), 13.51
M 0.00000 2 (71.91, 125.07, 0.00), (752.27, 39.88), 11.77
M 0.00000 3 (350.23, 257.25, 0.00), (219.38, 583.05), 10.71
M 0.00000 4 (163.04, 787.91, 0.00), (169.37, 642.37), 1.04
M 0.00000 5 (102.43, 618.34, 0.00), (645.74, 921.77), 11.94
M 0.00000 6 (498.58, 182.00, 0.00), (67.96, 993.50), 17.07
M 0.00000 7 (790.25, 902.66, 0.00), (436.10, 678.79), 5.96
M 0.00000 8 (599.78, 239.18, 0.00), (77.64, 268.03), 12.05
M 0.00000 9 (411.46, 365.52, 0.00), (791.52, 925.20), 15.29
M 0.00000 10 (272.56, 731.43, 0.00), (203.93, 593.73), 2.81
M 0.00000 11 (471.60, 265.16, 0.00), (321.13, 31.95), 5.14
M 0.00000 12 (171.88, 502.70, 0.00), (140.37, 821.10), 5.00
M 0.00000 13 (494.54, 265.83, 0.00), (897.93, 457.53), 18.10
M 0.00000 14 (457.89, 657.65, 0.00), (589.08, 469.20), 0.64
M 0.00000 15 (507.58, 20.38, 0.00), (486.36, 183.01), 1.27
M 0.00000 16 (481.16, 846.52, 0.00), (827.56, 648.77), 7.84
M 0.00000 17 (818.54, 702.30, 0.00), (39.90, 812.67), 8.19
M 0.00000 18 (666.14, 635.64, 0.00), (264.23, 368.79), 11.31
M 0.00000 19 (915.80, 916.77, 0.00), (397.45, 386.48), 1.39
M 0.00000 20 (351.80, 788.93, 0.00), (518.18, 738.84), 1.52
M 0.00000 21 (511.43, 286.45, 0.00), (502.22, 859.79), 17.05
M 0.00000 22 (861.52, 963.13, 0.00), (202.91, 707.68), 6.14
M 0.00000 23 (497.09, 677.02, 0.00), (236.17, 707.91), 17.55
M 0.00000 24 (172.05, 151.82, 0.00), (917.40, 853.97), 11.16
M 0.00000 25 (366.54, 87.06, 0.00), (263.65, 214.48), 14.53
M 0.00000 26 (695.81, 990.12, 0.00), (108.44, 523.15), 3.09
M 0.00000 27 (98.58, 868.58, 0.00), (409.03, 93.51), 10.72
M 0.00000 28 (691.17, 925.43, 0.00), (850.05, 626.49), 19.30
M 0.00000 29 (455.37, 998.54, 0.00), (16.50, 582.17), 0.46
s 1.000000000 _0_ AGT  --- 0 cbr 210 [0 0 0 0] ------- [0:0 0:1 32 0] [0] 0 0
r 1.000000000 _0_ AGT  --- 0 cbr 210 [0 0 0 0] ------- [0:0 0:1 32 0] [0] 0 0
s 1.000000000 _0_ AGT  --- 1 cbr 210 [0 0 0 0] ------- [0:2 1:0 32 0] [1] 0 3
s 1.000000000 _0_ AGT  --- 2 cbr 210 [0 0 0 0] ------- [0:3 2:0 32 0] [2] 0 7
s 1.000000000 _0_ AGT  --- 3 cbr 210 [0 0 0 0] ------- [0:4 3:0 32 0] [3] 0 5
s 1.000000000 _0_ AGT  --- 4 cbr 210 [0 0 0 0] ------- [0:5 4:0 32 0] [4] 0 1
s 1.000000000 _0_ AGT  --- 5 cbr 210 [0 0 0 0] ------- [0:6 5:0 32 0] [5] 0 1
s 1.000000000 _0_ AGT  --- 6 cbr 210 [0 0 0 0] ------- [0:7 6:0 32 0] [6] 0 5
s 1.000000000 _0_ AGT  --- 7 cbr 210 [0 0 0 0] ------- [0:8 7:0 32 0] [7] 0 4
s 1.000000000 _0_ AGT  --- 8 cbr 210 [0 0 0 0] ------- [0:9 8:0 32 0] [8] 0 4
s 1.000000000 _0_ AGT  --- 9 cbr 210 [0 0 0 0] ------- [0:10 9:0 32 0] [9] 0 4
s 1.000000000 _0_ AGT  --- 10 cbr 210 [0 0 0 0] ------- [0:11 10:0 32 0] [10] 0 1
s 1.000000000 _0_ AGT  --- 11 cbr 210 [0 0 0 0] ------- [0:12 11:0 32 0] [11] 0 4
s 1.000000000 _0_ AGT  --- 12 cbr 210 [0 0 0 0] ------- [0:13 12:0 32 0] [12] 0 1
s 1.000000000 _0_ AGT  --- 13 cbr 210 [0 0 0 0] ------- [0:14 13:0 32 0] [13] 0 4
s 1.000000000 _0_ AGT  --- 14 cbr 210 [0 0 0 0] ------- [0:15 14:0 32 0] [14] 0 2
s 1.000000000 _0_ AGT  --- 15 cbr 210 [0 0 0 0] ------- [0:16 15:0 32 0] [15] 0 5
s 1.000000000 _0_ AGT  --- 16 cbr 210 [0 0 0 0] ------- [0:17 16:0 32 0] [16] 0 2
s 1.000000000 _0_ AGT  --- 17 cbr 210 [0 0 0 0] ------- [0:18 17:0 32 0] [17] 0 4
s 1.000000000 _0_ AGT  --- 18 cbr 210 [0 0 0 0] ------- [0:19 18:0 32 0] [18] 0 3
s 1.000000000 _0_ AGT  --- 19 cbr 210 [0 0 0 0] ------- [0:20 19:0 32 0] [19] 0 4
s 1.000000000 _0_ AGT  --- 20 cbr 210 [0 0 0 0] ------- [0:21 20:0 32 0] [20] 0 2
s 1.000000000 _0_ AGT  --- 21 cbr 210 [0 0 0 0] ------- [0:22 21:0 32 0] [21] 0 4
s 1.000000000 _0_ AGT  --- 22 cbr 210 [0 0 0 0] ------- [0:23 22:0 32 0] [22] 0 4
s 1.000000000 _0_ AGT  --- 23 cbr 210 [0 0 0 0] ------- [0:24 23:0 32 0] [23] 0 2
s 1.000000000 _0_ AGT  --- 24 cbr 210 [0 0 0 0] ------- [0:25 24:0 32 0] [24] 0 6
s 1.000000000 _0_ AGT  --- 25 cbr 210 [0 0 0 0] ------- [0:26 25:0 32 0] [25] 0 5
s 1.000000000 _0_ AGT  --- 26 cbr 210 [0 0 0 0] ------- [0:27 26:0 32 0] [26] 0 4
s 1.000000000 _0_ AGT  --- 27 cbr 210 [0 0 0 0] ------- [0:28 27:0 32 0] [27] 0 2
s 1.000000000 _0_ AGT  --- 28 cbr 210 [0 0 0 0] ------- [0:29 28:0 32 0] [28] 0 3
s 1.000000000 _0_ AGT  --- 29 cbr 210 [0 0 0 0] ------- [0:30 29:0 32 0] [29] 0 3
s 1.003750000 _0_ AGT  --- 30 cbr 210 [0 0 0 0] ------- [0:30 29:0 32 0] [30] 0 3
s 1.007500000 _0_ AGT  --- 31 cbr 210 [0 0 0 0] ------- [0:30 29:0 32 0] [31] 0 3
s 1.011250000 _0_ AGT  --- 32 cbr 210 [0 0 0 0] ------- [0:30 29:0 32 0] [32] 0 3
s 1.015000000 _0_ AGT  --- 33 cbr 210 [0 0 0 0] ------- [0:30 29:0 32 0] [33] 0 3
s 1.018750000 _0_ AGT  --- 34 cbr 210 [0 0 0 0] ------- [0:30 29:0 32 0] [34] 0 3
s 1.022500000 _0_ AGT  --- 35 cbr 210 [0 0 0 0] ------- [0:30 29:0 32 0] [35] 0 3
s 1.026250000 _0_ AGT  --- 36 cbr 210 [0 0 0 0] ------- [0:30 29:0 32 0] [36] 0 3
s 1.030000000 _0_ AGT  --- 37 cbr 210 [0 0 0 0] ------- [0:30 29:0 32 0] [37] 0 3
s 1.033750000 _0_ AGT  --- 38 cbr 210 [0 0 0 0] ------- [0:30 29:0 32 0] [38] 0 3
s 1.037500000 _0_ AGT  --- 39 cbr 210 [0 0 0 0] ------- [0:30 29:0 32 0] [39] 0 3
s 1.041250000 _0_ AGT  --- 40 cbr 210 [0 0 0 0] ------- [0:30 29:0 32 0] [40] 0 3
s 1.045000000 _0_ AGT  --- 41 cbr 210 [0 0 0 0] ------- [0:30 29:0 32 0] [41] 0 3
s 1.048750000 _0_ AGT  --- 42 cbr 210 [0 0 0 0] ------- [0:30 29:0 32 0] [42] 0 3
s 1.052500000 _0_ AGT  --- 43 cbr 210 [0 0 0 0] ------- [0:30 29:0 32 0] [43] 0 3
s 1.056250000 _0_ AGT  --- 44 cbr 210 [0 0 0 0] ------- [0:30 29:0 32 0] [44] 0 3
s 1.060000000 _0_ AGT  --- 45 cbr 210 [0 0 0 0] ------- [0:30 29:0 32 0] [45] 0 3
s 1.063750000 _0_ AGT  --- 46 cbr 210 [0 0 0 0] ------- [0:30 29:0 32 0] [46] 0 3
s 1.067500000 _0_ AGT  --- 47 cbr 210 [0 0 0 0] ------- [0:30 29:0 32 0] [47] 0 3
D 1.070321851 _28_ IFQ  ARP 0 AODV 44 [0 0 1c 800] ------- [28:255 0:255 30 16] [0x4 1 [28 4] 10.000000] (REPLY)
s 1.071250000 _0_ AGT  --- 48 cbr 210 [0 0 0 0] ------- [0:30 29:0 32 0] [48] 0 3
s 1.075000000 _0_ AGT  --- 49 cbr 210 [0 0 0 0] ------- [0:30 29:0 32 0] [49] 0 3
s 1.078750000 _0_ AGT  --- 50 cbr 210 [0 0 0 0] ------- [0:30 29:0 32 0] [50] 0 3
s 1.082500000 _0_ AGT  --- 51 cbr 210 [0 0 0 0] ------- [0:30 29:0 32 0] [51] 0 3
s 1.086250000 _0_ AGT  --- 52 cbr 210 [0 0 0 0] ------- [0:30 29:0 32 0] [52] 0 3
s 1.090000000 _0_ AGT  --- 53 cbr 210 [0 0 0 0] ------- [0:30 29:0 32 0] [53] 0 3
s 1.093750000 _0_ AGT  --- 54 cbr 210 [0 0 0 0] ------- [0:30 29:0 32 0] [54] 0 3
s 1.097500000 _0_ AGT  --- 55 cbr 210 [0 0 0 0] ------- [0:30 29:0 32 0] [55] 0 3
D 1.101191495 _28_ IFQ  ARP 0 AODV 44 [13a 1c 1c 800] ------- [26:255 0:255 29 16] [0x4 2 [26 4] 10.000000] (REPLY)
s 1.101250000 _0_ AGT  --- 56 cbr 210 [0 0 0 0] ------- [0:30 29:0 32 0] [56] 0 3
s 1.105000000 _0_ AGT  --- 57 cbr 210 [0 0 0 0] ------- [0:30 29:0 32 0] [57] 0 3
s 1.108750000 _0_ AGT  --- 58 cbr 210 [0 0 0 0] ------- [0:30 29:0 32 0] [58] 0 3
s 1.112500000 _0_ AGT  --- 59 cbr 210 [0 0 0 0] ------- [0:30 29:0 32 0] [59] 0 3
s 1.116250000 _0_ AGT  --- 60 cbr 210 [0 0 0 0] ------- [0:30 29:0 32 0] [60] 0 3
s 1.120000000 _0_ AGT  --- 61 cbr 210 [0 0 0 0] ------- [0:30 29:0 32 0] [61] 0 3
s 1.123750000 _0_ AGT  --- 62 cbr 210 [0 0 0 0] ------- [0:30 29:0 32 0] [62] 0 3
s 1.127500000 _0_ AGT  --- 63 cbr 210 [0 0 0 0] ------- [0:30 29:0 32 0] [63] 0 3
s 1.131250000 _0_ AGT  --- 64 cbr 210 [0 0 0 0] ------- [0:30 29:0 32 0] [64] 0 3
s 1.135000000 _0_ AGT  --- 65 cbr 210 [0 0 0 0] ------- [0:30 29:0 32 0] [65] 0 3
D 1.135000000 _0_ RTR  IFQ 1 cbr 230 [0 0 0 0] ------- [0:2 1:0 30 0] [1] 0 3
s 1.138750000 _0_ AGT  --- 66 cbr 210 [0 0 0 0] ------- [0:30 29:0 32 0] [66] 0 3
D 1.138750000 _0_ RTR  IFQ 2 cbr 230 [0 0 0 0] ------- [0:3 2:0 30 0] [2] 0 7
s 1.142500000 _0_ AGT  --- 67 cbr 210 [0 0 0 0] ------- [0:30 29:0 32 0] [67] 0 3
D 1.142500000 _0_ RTR  IFQ 3 cbr 230 [0 0 0 0] ------- [0:4 3:0 30 0] [3] 0 5
s 1.146250000 _0_ AGT  --- 68 cbr 210 [0 0 0 0] ------- [0:30 29:0 32 0] [68] 0 3
D 1.146250000 _0_ RTR  IFQ 4 cbr 230 [0 0 0 0] ------- [0:5 4:0 30 0] [4] 0 1
s 1.150000000 _0_ AGT  --- 69 cbr 210 [0 0 0 0] ------- [0:30 29:0 32 0] [69] 0 3
D 1.150000000 _0_ RTR  IFQ 5 cbr 230 [0 0 0 0] ------- [0:6 5:0 30 0] [5] 0 1
s 1.153750000 _0_ AGT  --- 70 cbr 210 [0 0 0 0] ------- [0:30 29:0 32 0] [70] 0 3
D 1.153750000 _0_ RTR  IFQ 6 cbr 230 [0 0 0 0] ------- [0:7 6:0 30 0] [6] 0 5
s 1.157500000 _0_ AGT  --- 71 cbr 210 [0 0 0 0] ------- [0:30 29:0 32 0] [71] 0 3
D 1.157500000 _0_ RTR  IFQ 7 cbr 230 [0 0 0 0] ------- [0:8 7:0 30 0] [7] 0 4
s 1.161250000 _0_ AGT  --- 72 cbr 210 [0 0 0 0] ------- [0:30 29:0 32 0] [72] 0 3
D 1.161250000 _0_ RTR  IFQ 8 cbr 230 [0 0 0 0] ------- [0:9 8:0 30 0] [8] 0 4
s 1.165000000 _0_ AGT  --- 73 cbr 210 [0 0 0 0] ------- [0:30 29:0 32 0] [73] 0 3
D 1.165000000 _0_ RTR  IFQ 9 cbr 230 [0 0 0 0] ------- [0:10 9:0 30 0] [9] 0 4
D 1.165930989 _28_ IFQ  ARP 0 AODV 44 [13a 1c 1c 800] ------- [22:255 0:255 29 16] [0x4 2 [22 4] 10.000000] (REPLY)
D 1.165930989 _28_ IFQ  ARP 0 AODV 44 [13a 1c 1c 800] ------- [17:255 0:255 29 16] [0x4 2 [17 4] 10.000000] (REPLY)
s 1.168750000 _0_ AGT  --- 74 cbr 210 [0 0 0 0] ------- [0:30 29:0 32 0] [74] 0 3
D 1.168750000 _0_ RTR  IFQ 10 cbr 230 [0 0 0 0] ------- [0:11 10:0 30 0] [10] 0 1
s 1.172500000 _0_ AGT  --- 75 cbr 210 [0 0 0 0] ------- [0:30 29:0 32 0] [75] 0 3
D 1.172500000 _0_ RTR  IFQ 11 cbr 230 [0 0 0 0] ------- [0:12 11:0 30 0] [11] 0 4
s 1.176250000 _0_ AGT  --- 76 cbr 210 [0 0 0 0] ------- [0:30 29:0 32 0] [76] 0 3
D 1.176250000 _0_ RTR  IFQ 12 cbr 230 [0 0 0 0] ------- [0:13 12:0 30 0] [12] 0 1
s 1.180000000 _0_ AGT  --- 77 cbr 210 [0 0 0 0] ------- [0:30 29:0 32 0] [77] 0 3
D 1.180000000 _0_ RTR  IFQ 13 cbr 230 [0 0 0 0] ------- [0:14 13:0 30 0] [13] 0 4
D 1.180416313 _1_ IFQ  ARP 0 AODV 44 [0 0 1 800] ------- [1:255 0:255 30 14] [0x4 1 [1 4] 10.000000] (REPLY)
s 1.183750000 _0_ AGT  --- 78 cbr 210 [0 0 0 0] ------- [0:30 29:0 32 0] [78] 0 3
D 1.183750000 _0_ RTR  IFQ 14 cbr 230 [0 0 0 0] ------- [0:15 14:0 30 0] [14] 0 2
s 1.187500000 _0_ AGT  --- 79 cbr 210 [0 0 0 0] ------- [0:30 29:0 32 0] [79] 0 3
D 1.187500000 _0_ RTR  IFQ 15 cbr 230 [0 0 0 0] ------- [0:16 15:0 30 0] [15] 0 5
s 1.191250000 _0_ AGT  --- 80 cbr 210 [0 0 0 0] ------- [0:30 29:0 32 0] [80] 0 3
D 1.191250000 _0_ RTR  IFQ 16 cbr 230 [0 0 0 0] ------- [0:17 16:0 30 0] [16] 0 2
s 1.195000000 _0_ AGT  --- 81 cbr 210 [0 0 0 0] ------- [0:30 29:0 32 0] [81] 0 3
D 1.195000000 _0_ RTR  IFQ 17 cbr 230 [0 0 0 0] ------- [0:18 17:0 30 0] [17] 0 4
s 1.198750000 _0_ AGT  --- 82 cbr 210 [0 0 0 0] ------- [0:30 29:0 32 0] [82] 0 3
D 1.198750000 _0_ RTR  IFQ 18 cbr 230 [0 0 0 0] ------- [0:19 18:0 30 0] [18] 0 3
s 1.202500000 _0_ AGT  --- 83 cbr 210 [0 0 0 0] ------- [0:30 29:0 32 0] [83] 0 3
D 1.202500000 _0_ RTR  IFQ 19 cbr 230 [0 0 0 0] ------- [0:20 19:0 30 0] [19] 0 4
s 1.206250000 _0_ AGT  --- 84 cbr 210 [0 0 0 0] ------- [0:30 29:0 32 0] [84] 0 3
D 1.206250000 _0_ RTR  IFQ 20 cbr 230 [0 0 0 0] ------- [0:21 20:0 30 0] [20] 0 2
s 1.210000000 _0_ AGT  --- 85 cbr 210 [0 0 0 0] ------- [0:30 29:0 32 0] [85] 0 3
D 1.210000000 _0_ RTR  IFQ 21 cbr 230 [0 0 0 0] ------- [0:22 21:0 30 0] [21] 0 4
s 1.213750000 _0_ AGT  --- 86 cbr 210 [0 0 0 0] ------- [0:30 29:0 32 0] [86] 0 3
D 1.213750000 _0_ RTR  IFQ 22 cbr 230 [0 0 0 0] ------- [0:23 22:0 30 0] [22] 0 4
s 1.217500000 _0_ AGT  --- 87 cbr 210 [0 0 0 0] ------- [0:30 29:0 32 0] [87] 0 3
D 1.217500000 _0_ RTR  IFQ 23 cbr 230 [0 0 0 0] ------- [0:24 23:0 30 0] [23] 0 2
s 1.221250000 _0_ AGT  --- 88 cbr 210 [0 0 0 0] ------- [0:30 29:0 32 0] [88] 0 3
D 1.221250000 _0_ RTR  IFQ 24 cbr 230 [0 0 0 0] ------- [0:25 24:0 30 0] [24] 0 6
s 1.225000000 _0_ AGT  --- 89 cbr 210 [0 0 0 0] ------- [0:30 29:0 32 0] [89] 0 3
D 1.225000000 _0_ RTR  IFQ 25 cbr 230 [0 0 0 0] ------- [0:26 25:0 30 0] [25] 0 5
s 1.228750000 _0_ AGT  --- 90 cbr 210 [0 0 0 0] ------- [0:30 29:0 32 0] [90] 0 3
D 1.228750000 _0_ RTR  IFQ 26 cbr 230 [0 0 0 0] ------- [0:27 26:0 30 0] [26] 0 4
s 1.232500000 _0_ AGT  --- 91 cbr 210 [0 0 0 0] ------- [0:30 29:0 32 0] [91] 0 3
D 1.232500000 _0_ RTR  IFQ 27 cbr 230 [0 0 0 0] ------- [0:28 27:0 30 0] [27] 0 2
s 1.236250000 _0_ AGT  --- 92 cbr 210 [0 0 0 0] ------- [0:30 29:0 32 0] [92] 0 3
D 1.236250000 _0_ RTR  IFQ 28 cbr 230 [0 0 0 0] ------- [0:29 28:0 30 0] [28] 0 3
s 1.240000000 _0_ AGT  --- 93 cbr 210 [0 0 0 0] ------- [0:30 29:0 32 0] [93] 0 3
D 1.240000000 _0_ RTR  IFQ 29 cbr 230 [0 0 0 0] ------- [0:30 29:0 30 0] [29] 0 3
s 1.243750000 _0_ AGT  --- 94 cbr 210 [0 0 0 0] ------- [0:30 29:0 32 0] [94] 0 3
D 1.243750000 _0_ RTR  IFQ 30 cbr 230 [0 0 0 0] ------- [0:30 29:0 30 0] [30] 0 3
s 1.247500000 _0_ AGT  --- 95 cbr 210 [0 0 0 0] ------- [0:30 29:0 32 0] [95] 0 3
D 1.247500000 _0_ RTR  IFQ 31 cbr 230 [0 0 0 0] ------- [0:30 29:0 30 0] [31] 0 3
s 1.251250000 _0_ AGT  --- 96 cbr 210 [0 0 0 0] ------- [0:30 29:0 32 0] [96] 0 3
D 1.251250000 _0_ RTR  IFQ 32 cbr 230 [0 0 0 0] ------- [0:30 29:0 30 0] [32] 0 3
s 1.255000000 _0_ AGT  --- 97 cbr 210 [0 0 0 0] ------- [0:30 29:0 32 0] [97] 0 3
D 1.255000000 _0_ RTR  IFQ 33 cbr 230 [0 0 0 0] ------- [0:30 29:0 30 0] [33] 0 3
D 1.256310747 _28_ IFQ  ARP 0 AODV 44 [13a 1c 1c 800] ------- [19:255 0:255 29 16] [0x4 2 [19 4] 10.000000] (REPLY)
s 1.258750000 _0_ AGT  --- 98 cbr 210 [0 0 0 0] ------- [0:30 29:0 32 0] [98] 0 3
D 1.258750000 _0_ RTR  IFQ 34 cbr 230 [0 0 0 0] ------- [0:30 29:0 30 0] [34] 0 3
s 1.262500000 _0_ AGT  --- 99 cbr 210 [0 0 0 0] ------- [0:30 29:0 32 0] [99] 0 3
D 1.262500000 _0_ RTR  IFQ 35 cbr 230 [0 0 0 0] ------- [0:30 29:0 30 0] [35] 0 3
s 1.266250000 _0_ AGT  --- 100 cbr 210 [0 0 0 0] ------- [0:30 29:0 32 0] [100] 0 3
D 1.266250000 _0_ RTR  IFQ 36 cbr 230 [0 0 0 0] ------- [0:30 29:0 30 0] [36] 0 3
s 1.270000000 _0_ AGT  --- 101 cbr 210 [0 0 0 0] ------- [0:30 29:0 32 0] [101] 0 3
D 1.270000000 _0_ RTR  IFQ 37 cbr 230 [0 0 0 0] ------- [0:30 29:0 30 0] [37] 0 3
s 1.273750000 _0_ AGT  --- 102 cbr 210 [0 0 0 0] ------- [0:30 29:0 32 0] [102] 0 3
D 1.273750000 _0_ RTR  IFQ 38 cbr 230 [0 0 0 0] ------- [0:30 29:0 30 0] [38] 0 3
s 1.277500000 _0_ AGT  --- 103 cbr 210 [0 0 0 0] ------- [0:30 29:0 32 0] [103] 0 3
D 1.277500000 _0_ RTR  IFQ 39 cbr 230 [0 0 0 0] ------- [0:30 29:0 30 0] [39] 0 3
s 1.281250000 _0_ AGT  --- 104 cbr 210 [0 0 0 0] ------- [0:30 29:0 32 0] [104] 0 3
D 1.281250000 _0_ RTR  IFQ 40 cbr 230 [0 0 0 0] ------- [0:30 29:0 30 0] [40] 0 3
s 1.285000000 _0_ AGT  --- 105 cbr 210 [0 0 0 0] ------- [0:30 29:0 32 0] [105] 0 3
D 1.285000000 _0_ RTR  IFQ 41 cbr 230 [0 0 0 0] ------- [0:30 29:0 30 0] [41] 0 3
s 1.288750000 _0_ AGT  --- 106 cbr 210 [0 0 0 0] ------- [0:30 29:0 32 0] [106] 0 3
D 1.288750000 _0_ RTR  IFQ 42 cbr 230 [0 0 0 0] ------- [0:30 29:0 30 0] [42] 0 3
s 1.292500000 _0_ AGT  --- 107 cbr 210 [0 0 0 0] ------- [0:30 29:0 32 0] [107] 0 3
D 1.292500000 _0_ RTR  IFQ 43 cbr 230 [0 0 0 0] ------- [0:30 29:0 30 0] [43] 0 3
s 1.296250000 _0_ AGT  --- 108 cbr 210 [0 0 0 0] ------- [0:30 29:0 32 0] [108] 0 3
D 1.296250000 _0_ RTR  IFQ 44 cbr 230 [0 0 0 0] ------- [0:30 29:0 30 0] [44] 0 3
s 1.300000000 _0_ AGT  --- 109 cbr 210 [0 0 0 0] ------- [0:30 29:0 32 0] [109] 0 3
D 1.300000000 _0_ RTR  IFQ 45 cbr 230 [0 0 0 0] ------- [0:30 29:0 30 0] [45] 0 3
s 1.303750000 _0_ AGT  --- 110 cbr 210 [0 0 0 0] ------- [0:30 29:0 32 0] [110] 0 3
D 1.303750000 _0_ RTR  IFQ 46 cbr 230 [0 0 0 0] ------- [0:30 29:0 30 0] [46] 0 3
s 1.307500000 _0_ AGT  --- 111 cbr 210 [0 0 0 0] ------- [0:30 29:0 32 0] [111] 0 3
D 1.307500000 _0_ RTR  IFQ 47 cbr 230 [0 0 0 0] ------- [0:30 29:0 30 0] [47] 0 3
s 1.311250000 _0_ AGT  --- 112 cbr 210 [0 0 0 0] ------- [0:30 29:0 32 0] [112] 0 3
D 1.311250000 _0_ RTR  IFQ 48 cbr 230 [0 0 0 0] ------- [0:30 29:0 30 0] [48] 0 3
D 1.312520086 _1_ IFQ  ARP 0 AODV 44 [13a 1 1 800] ------- [25:255 0:255 28 14] [0x4 3 [25 4] 10.000000] (REPLY)
s 1.315000000 _0_ AGT  --- 113 cbr 210 [0 0 0 0] ------- [0:30 29:0 32 0] [113] 0 3
D 1.315000000 _0_ RTR  IFQ 49 cbr 230 [0 0 0 0] ------- [0:30 29:0 30 0] [49] 0 3
s 1.318750000 _0_ AGT  --- 114 cbr 210 [0 0 0 0] ------- [0:30 29:0 32 0] [114] 0 3
D 1.318750000 _0_ RTR  IFQ 50 cbr 230 [0 0 0 0] ------- [0:30 29:0 30 0] [50] 0 3
s 1.322500000 _0_ AGT  --- 115 cbr 210 [0 0 0 0] ------- [0:30 29:0 32 0] [115] 0 3
D 1.322500000 _0_ RTR  IFQ 51 cbr 230 [0 0 0 0] ------- [0:30 29:0 30 0] [51] 0 3
s 1.326250000 _0_ AGT  --- 116 cbr 210 [0 0 0 0] ------- [0:30 29:0 32 0] [116] 0 3
D 1.326250000 _0_ RTR  IFQ 52 cbr 230 [0 0 0 0] ------- [0:30 29:0 30 0] [52] 0 3
s 1.330000000 _0_ AGT  --- 117 cbr 210 [0 0 0 0] ------- [0:30 29:0 32 0] [117] 0 3
D 1.330000000 _0_ RTR  IFQ 53 cbr 230 [0 0 0 0] ------- [0:30 29:0 30 0] [53] 0 3
s 1.333750000 _0_ AGT  --- 118 cbr 210 [0 0 0 0] ------- [0:30 29:0 32 0] [118] 0 3
D 1.333750000 _0_ RTR  IFQ 54 cbr 230 [0 0 0 0] ------- [0:30 29:0 30 0] [54] 0 3
s 1.337500000 _0_ AGT  --- 119 cbr 210 [0 0 0 0] ------- [0:30 29:0 32 0] [119] 0 3
D 1.337500000 _0_ RTR  IFQ 55 cbr 230 [0 0 0 0] ------- [0:30 29:0 30 0] [55] 0 3
s 1.341250000 _0_ AGT  --- 120 cbr 210 [0 0 0 0] ------- [0:30 29:0 32 0] [120] 0 3
D 1.341250000 _0_ RTR  IFQ 56 cbr 230 [0 0 0 0] ------- [0:30 29:0 30 0] [56] 0 3
s 1.345000000 _0_ AGT  --- 121 cbr 210 [0 0 0 0] ------- [0:30 29:0 32 0] [121] 0 3
D 1.345000000 _0_ RTR  IFQ 57 cbr 230 [0 0 0 0] ------- [0:30 29:0 30 0] [57] 0 3
s 1.348750000 _0_ AGT  --- 122 cbr 210 [0 0 0 0] ------- [0:30 29:0 32 0] [122] 0 3
D 1.348750000 _0_ RTR  IFQ 58 cbr 230 [0 0 0 0] ------- [0:30 29:0 30 0] [58] 0 3
s 1.352500000 _0_ AGT  --- 123 cbr 210 [0 0 0 0] ------- [0:30 29:0 32 0] [123] 0 3
D 1.352500000 _0_ RTR  IFQ 59 cbr 230 [0 0 0 0] ------- [0:30 29:0 30 0] [59] 0 3
s 1.356250000 _0_ AGT  --- 124 cbr 210 [0 0 0 0] ------- [0:30 29:0 32 0] [124] 0 3
D 1.356250000 _0_ RTR  IFQ 60 cbr 230 [0 0 0 0] ------- [0:30 29:0 30 0] [60] 0 3
s 1.360000000 _0_ AGT  --- 125 cbr 210 [0 0 0 0] ------- [0:30 29:0 32 0] [125] 0 3
D 1.360000000 _0_ RTR  IFQ 61 cbr 230 [0 0 0 0] ------- [0:30 29:0 30 0] [61] 0 3
s 1.363750000 _0_ AGT  --- 126 cbr 210 [0 0 0 0] ------- [0:30 29:0 32 0] [126] 0 3
D 1.363750000 _0_ RTR  IFQ 62 cbr 230 [0 0 0 0] ------- [0:30 29:0 30 0] [62] 0 3
s 1.367500000 _0_ AGT  --- 127 cbr 210 [0 0 0 0] ------- [0:30 29:0 32 0] [127] 0 3
D 1.367500000 _0_ RTR  IFQ 63 cbr 230 [0 0 0 0] ------- [0:30 29:0 30 0] [63] 0 3
s 1.371250000 _0_ AGT  --- 128 cbr 210 [0 0 0 0] ------- [0:30 29:0 32 0] [128] 0 3
D 1.371250000 _0_ RTR  IFQ 64 cbr 230 [0 0 0 0] ------- [0:30 29:0 30 0] [64] 0 3
s 1.375000000 _0_ AGT  --- 129 cbr 210 [0 0 0 0] ------- [0:30 29:0 32 0] [129] 0 3
D 1.375000000 _0_ RTR  IFQ 65 cbr 230 [0 0 0 0] ------- [0:30 29:0 30 0] [65] 0 3
D 1.375934552 _1_ IFQ  ARP 0 AODV 44 [13a 1 1 800] ------- [15:255 0:255 28 14] [0x4 3 [15 4] 10.000000] (REPLY)
D 1.375934552 _1_ IFQ  ARP 0 AODV 44 [13a 1 1 800] ------- [6:255 0:255 28 14] [0x4 3 [6 4] 10.000000] (REPLY)
s 1.378750000 _0_ AGT  --- 130 cbr 210 [0 0 0 0] ------- [0:30 29:0 32 0] [130] 0 3
D 1.378750000 _0_ RTR  IFQ 66 cbr 230 [0 0 0 0] ------- [0:30 29:0 30 0] [66] 0 3
s 1.382500000 _0_ AGT  --- 131 cbr 210 [0 0 0 0] ------- [0:30 29:0 32 0] [131] 0 3
D 1.382500000 _0_ RTR  IFQ 67 cbr 230 [0 0 0 0] ------- [0:30 29:0 30 0] [67] 0 3
D 1.383021353 _10_ IFQ  ARP 0 AODV 44 [13a a a 800] ------- [20:255 0:255 29 0] [0x4 2 [20 4] 10.000000] (REPLY)
D 1.385738147 _10_ IFQ  ARP 0 AODV 44 [13a a a 800] ------- [16:255 0:255 29 0] [0x4 2 [16 4] 10.000000] (REPLY)
s 1.386250000 _0_ AGT  --- 132 cbr 210 [0 0 0 0] ------- [0:30 29:0 32 0] [132] 0 3
D 1.386250000 _0_ RTR  IFQ 68 cbr 230 [0 0 0 0] ------- [0:30 29:0 30 0] [68] 0 3
D 1.388980432 _10_ IFQ  ARP 0 AODV 44 [13a a a 800] ------- [27:255 0:255 29 0] [0x4 2 [27 4] 10.000000] (REPLY)
D 1.388980432 _10_ IFQ  ARP 0 AODV 44 [13a a a 800] ------- [23:255 0:255 29 0] [0x4 2 [23 4] 10.000000] (REPLY)
s 1.390000000 _0_ AGT  --- 133 cbr 210 [0 0 0 0] ------- [0:30 29:0 32 0] [133] 0 3
D 1.390000000 _0_ RTR  IFQ 69 cbr 230 [0 0 0 0] ------- [0:30 29:0 30 0] [69] 0 3
s 1.393750000 _0_ AGT  --- 134 cbr 210 [0 0 0 0] ------- [0:30 29:0 32 0] [134] 0 3
D 1.393750000 _0_ RTR  IFQ 70 cbr 230 [0 0 0 0] ------- [0:30 29:0 30 0] [70] 0 3
s 1.397500000 _0_ AGT  --- 135 cbr 210 [0 0 0 0] ------- [0:30 29:0 32 0] [135] 0 3
D 1.397500000 _0_ RTR  IFQ 71 cbr 230 [0 0 0 0] ------- [0:30 29:0 30 0] [71] 0 3
s 1.401250000 _0_ AGT  --- 136 cbr 210 [0 0 0 0] ------- [0:30 29:0 32 0] [136] 0 3
D 1.401250000 _0_ RTR  IFQ 72 cbr 230 [0 0 0 0] ------- [0:30 29:0 30 0] [72] 0 3
s 1.405000000 _0_ AGT  --- 137 cbr 210 [0 0 0 0] ------- [0:30 29:0 32 0] [137] 0 3
D 1.405000000 _0_ RTR  IFQ 73 cbr 230 [0 0 0 0] ------- [0:30 29:0 30 0] [73] 0 3
s 1.408750000 _0_ AGT  --- 138 cbr 210 [0 0 0 0] ------- [0:30 29:0 32 0] [138] 0 3
D 1.408750000 _0_ RTR  IFQ 74 cbr 230 [0 0 0 0] ------- [0:30 29:0 30 0] [74] 0 3
s 1.412500000 _0_ AGT  --- 139 cbr 210 [0 0 0 0] ------- [0:30 29:0 32 0] [139] 0 3
D 1.412500000 _0_ RTR  IFQ 75 cbr 230 [0 0 0 0] ------- [0:30 29:0 30 0] [75] 0 3
s 1.416250000 _0_ AGT  --- 140 cbr 210 [0 0 0 0] ------- [0:30 29:0 32 0] [140] 0 3
D 1.416250000 _0_ RTR  IFQ 76 cbr 230 [0 0 0 0] ------- [0:30 29:0 30 0] [76] 0 3
s 1.420000000 _0_ AGT  --- 141 cbr 210 [0 0 0 0] ------- [0:30 29:0 32 0] [141] 0 3
D 1.420000000 _0_ RTR  IFQ 77 cbr 230 [0 0 0 0] ------- [0:30 29:0 30 0] [77] 0 3
s 1.423750000 _0_ AGT  --- 142 cbr 210 [0 0 0 0] ------- [0:30 29:0 32 0] [142] 0 3
D 1.423750000 _0_ RTR  IFQ 78 cbr 230 [0 0 0 0] ------- [0:30 29:0 30 0] [78] 0 3
s 1.427500000 _0_ AGT  --- 143 cbr 210 [0 0 0 0] ------- [0:30 29:0 32 0] [143] 0 3
D 1.427500000 _0_ RTR  IFQ 79 cbr 230 [0 0 0 0] ------- [0:30 29:0 30 0] [79] 0 3
s 1.431250000 _0_ AGT  --- 144 cbr 210 [0 0 0 0] ------- [0:30 29:0 32 0] [144] 0 3
D 1.431250000 _0_ RTR  IFQ 80 cbr 230 [0 0 0 0] ------- [0:30 29:0 30 0] [80] 0 3
D 1.432592370 _1_ IFQ  ARP 0 AODV 44 [13a 1 1 800] ------- [3:255 0:255 28 14] [0x4 3 [3 4] 10.000000] (REPLY)
s 1.435000000 _0_ AGT  --- 145 cbr 210 [0 0 0 0] ------- [0:30 29:0 32 0] [145] 0 3
D 1.435000000 _0_ RTR  IFQ 81 cbr 230 [0 0 0 0] ------- [0:30 29:0 30 0] [81] 0 3
s 1.438750000 _0_ AGT  --- 146 cbr 210 [0 0 0 0] ------- [0:30 29:0 32 0] [146] 0 3
D 1.438750000 _0_ RTR  IFQ 82 cbr 230 [0 0 0 0] ------- [0:30 29:0 30 0] [82] 0 3
D 1.442401323 _1_ IFQ  ARP 0 AODV 44 [13a 1 1 800] ------- [2:255 0:255 26 14] [0x4 5 [2 4] 10.000000] (REPLY)
s 1.442500000 _0_ AGT  --- 147 cbr 210 [0 0 0 0] ------- [0:30 29:0 32 0] [147] 0 3
D 1.442500000 _0_ RTR  IFQ 83 cbr 230 [0 0 0 0] ------- [0:30 29:0 30 0] [83] 0 3
s 1.446250000 _0_ AGT  --- 148 cbr 210 [0 0 0 0] ------- [0:30 29:0 32 0] [148] 0 3
D 1.446250000 _0_ RTR  IFQ 84 cbr 230 [0 0 0 0] ------- [0:30 29:0 30 0] [84] 0 3
s 1.450000000 _0_ AGT  --- 149 cbr 210 [0 0 0 0] ------- [0:30 29:0 32 0] [149] 0 3
D 1.450000000 _0_ RTR  IFQ 85 cbr 230 [0 0 0 0] ------- [0:30 29:0 30 0] [85] 0 3
s 1.453750000 _0_ AGT  --- 150 cbr 210 [0 0 0 0] ------- [0:30 29:0 32 0] [150] 0 3
D 1.453750000 _0_ RTR  IFQ 86 cbr 230 [0 0 0 0] ------- [0:30 29:0 30 0] [86] 0 3
s 1.457500000 _0_ AGT  --- 151 cbr 210 [0 0 0 0] ------- [0:30 29:0 32 0] [151] 0 3
D 1.457500000 _0_ RTR  IFQ 87 cbr 230 [0 0 0 0] ------- [0:30 29:0 30 0] [87] 0 3
s 1.461250000 _0_ AGT  --- 152 cbr 210 [0 0 0 0] ------- [0:30 29:0 32 0] [152] 0 3
D 1.461250000 _0_ RTR  IFQ 88 cbr 230 [0 0 0 0] ------- [0:30 29:0 30 0] [88] 0 3
s 1.465000000 _0_ AGT  --- 153 cbr 210 [0 0 0 0] ------- [0:30 29:0 32 0] [153] 0 3
D 1.465000000 _0_ RTR  IFQ 89 cbr 230 [0 0 0 0] ------- [0:30 29:0 30 0] [89] 0 3
s 1.468750000 _0_ AGT  --- 154 cbr 210 [0 0 0 0] ------- [0:30 29:0 32 0] [154] 0 3
D 1.468750000 _0_ RTR  IFQ 90 cbr 230 [0 0 0 0] ------- [0:30 29:0 30 0] [90] 0 3
s 1.472500000 _0_ AGT  --- 155 cbr 210 [0 0 0 0] ------- [0:30 29:0 32 0] [155] 0 3
D 1.472500000 _0_ RTR  IFQ 91 cbr 230 [0 0 0 0] ------- [0:30 29:0 30 0] [91] 0 3
s 1.476250000 _0_ AGT  --- 156 cbr 210 [0 0 0 0] ------- [0:30 29:0 32 0] [156] 0 3
D 1.476250000 _0_ RTR  IFQ 92 cbr 230 [0 0 0 0] ------- [0:30 29:0 30 0] [92] 0 3
s 1.480000000 _0_ AGT  --- 157 cbr 210 [0 0 0 0] ------- [0:30 29:0 32 0] [157] 0 3
D 1.480000000 _0_ RTR  IFQ 93 cbr 230 [0 0 0 0] ------- [0:30 29:0 30 0] [93] 0 3
s 1.483750000 _0_ AGT  --- 158 cbr 210 [0 0 0 0] ------- [0:30 29:0 32 0] [158] 0 3
D 1.483750000 _0_ RTR  IFQ 94 cbr 230 [0 0 0 0] ------- [0:30 29:0 30 0] [94] 0 3
s 1.487500000 _0_ AGT  --- 159 cbr 210 [0 0 0 0] ------- [0:30 29:0 32 0] [159] 0 3
D 1.487500000 _0_ RTR  IFQ 95 cbr 230 [0 0 0 0] ------- [0:30 29:0 30 0] [95] 0 3
s 1.491250000 _0_ AGT  --- 160 cbr 210 [0 0 0 0] ------- [0:30 29:0 32 0] [160] 0 3
D 1.491250000 _0_ RTR  IFQ 96 cbr 230 [0 0 0 0] ------- [0:30 29:0 30 0] [96] 0 3
s 1.495000000 _0_ AGT  --- 161 cbr 210 [0 0 0 0] ------- [0:30 29:0 32 0] [161] 0 3
D 1.495000000 _0_ RTR  IFQ 97 cbr 230 [0 0 0 0] ------- [0:30 29:0 30 0] [97] 0 3
s 1.498750000 _0_ AGT  --- 162 cbr 210 [0 0 0 0] ------- [0:30 29:0 32 0] [162] 0 3
D 1.498750000 _0_ RTR  IFQ 98 cbr 230 [0 0 0 0] ------- [0:30 29:0 30 0] [98] 0 3
s 1.502500000 _0_ AGT  --- 163 cbr 210 [0 0 0 0] ------- [0:30 29:0 32 0] [163] 0 3
D 1.502500000 _0_ RTR  IFQ 99 cbr 230 [0 0 0 0] ------- [0:30 29:0 30 0] [99] 0 3
s 1.506250000 _0_ AGT  --- 164 cbr 210 [0 0 0 0] ------- [0:30 29:0 32 0] [164] 0 3
D 1.506250000 _0_ RTR  IFQ 100 cbr 230 [0 0 0 0] ------- [0:30 29:0 30 0] [100] 0 3
s 1.510000000 _0_ AGT  --- 165 cbr 210 [0 0 0 0] ------- [0:30 29:0 32 0] [165] 0 3
D 1.510000000 _0_ RTR  IFQ 101 cbr 230 [0 0 0 0] ------- [0:30 29:0 30 0] [101] 0 3
s 1.513750000 _0_ AGT  --- 166 cbr 210 [0 0 0 0] ------- [0:30 29:0 32 0] [166] 0 3
D 1.513750000 _0_ RTR  IFQ 102 cbr 230 [0 0 0 0] ------- [0:30 29:0 30 0] [102] 0 3
s 1.517500000 _0_ AGT  --- 167 cbr 210 [0 0 0 0] ------- [0:30 29:0 32 0] [167] 0 3
D 1.517500000 _0_ RTR  IFQ 103 cbr 230 [0 0 0 0] ------- [0:30 29:0 30 0] [103] 0 3
s 1.521250000 _0_ AGT  --- 168 cbr 210 [0 0 0 0] ------- [0:30 29:0 32 0] [168] 0 3
D 1.521250000 _0_ RTR  IFQ 104 cbr 230 [0 0 0 0] ------- [0:30 29:0 30 0] [104] 0 3
s 1.525000000 _0_ AGT  --- 169 cbr 210 [0 0 0 0] ------- [0:30 29:0 32 0] [169] 0 3
D 1.525000000 _0_ RTR  IFQ 105 cbr 230 [0 0 0 0] ------- [0:30 29:0 30 0] [105] 0 3
s 1.528750000 _0_ AGT  --- 170 cbr 210 [0 0 0 0] ------- [0:30 29:0 32 0] [170] 0 3
D 1.528750000 _0_ RTR  IFQ 106 cbr 230 [0 0 0 0] ------- [0:30 29:0 30 0] [106] 0 3
s 1.532500000 _0_ AGT  --- 171 cbr 210 [0 0 0 0] ------- [0:30 29:0 32 0] [171] 0 3
D 1.532500000 _0_ RTR  IFQ 107 cbr 230 [0 0 0 0] ------- [0:30 29:0 30 0] [107] 0 3
s 1.536250000 _0_ AGT  --- 172 cbr 210 [0 0 0 0] ------- [0:30 29:0 32 0] [172] 0 3
D 1.536250000 _0_ RTR  IFQ 108 cbr 230 [0 0 0 0] ------- [0:30 29:0 30 0] [108] 0 3
s 1.540000000 _0_ AGT  --- 173 cbr 210 [0 0 0 0] ------- [0:30 29:0 32 0] [173] 0 3
D 1.540000000 _0_ RTR  IFQ 109 cbr 230 [0 0 0 0] ------- [0:30 29:0 30 0] [109] 0 3
s 1.543750000 _0_ AGT  --- 174 cbr 210 [0 0 0 0] ------- [0:30 29:0 32 0] [174] 0 3
D 1.543750000 _0_ RTR  IFQ 110 cbr 230 [0 0 0 0] ------- [0:30 29:0 30 0] [110] 0 3
s 1.547500000 _0_ AGT  --- 175 cbr 210 [0 0 0 0] ------- [0:30 29:0 32 0] [175] 0 3
D 1.547500000 _0_ RTR  IFQ 111 cbr 230 [0 0 0 0] ------- [0:30 29:0 30 0] [111] 0 3
s 1.551250000 _0_ AGT  --- 176 cbr 210 [0 0 0 0] ------- [0:30 29:0 32 0] [176] 0 3
D 1.551250000 _0_ RTR  IFQ 112 cbr 230 [0 0 0 0] ------- [0:30 29:0 30 0] [112] 0 3
s 1.555000000 _0_ AGT  --- 177 cbr 210 [0 0 0 0] ------- [0:30 29:0 32 0] [177] 0 3
D 1.555000000 _0_ RTR  IFQ 113 cbr 230 [0 0 0 0] ------- [0:30 29:0 30 0] [113] 0 3
s 1.558750000 _0_ AGT  --- 178 cbr 210 [0 0 0 0] ------- [0:30 29:0 32 0] [178] 0 3
D 1.558750000 _0_ RTR  IFQ 114 cbr 230 [0 0 0 0] ------- [0:30 29:0 30 0] [114] 0 3
s 1.562500000 _0_ AGT  --- 179 cbr 210 [0 0 0 0] ------- [0:30 29:0 32 0] [179] 0 3
D 1.562500000 _0_ RTR  IFQ 115 cbr 230 [0 0 0 0] ------- [0:30 29:0 30 0] [115] 0 3
s 1.566250000 _0_ AGT  --- 180 cbr 210 [0 0 0 0] ------- [0:30 29:0 32 0] [180] 0 3
D 1.566250000 _0_ RTR  IFQ 116 cbr 230 [0 0 0 0] ------- [0:30 29:0 30 0] [116] 0 3
s 1.570000000 _0_ AGT  --- 181 cbr 210 [0 0 0 0] ------- [0:30 29:0 32 0] [181] 0 3
D 1.570000000 _0_ RTR  IFQ 117 cbr 230 [0 0 0 0] ------- [0:30 29:0 30 0] [117] 0 3
s 1.573750000 _0_ AGT  --- 182 cbr 210 [0 0 0 0] ------- [0:30 29:0 32 0] [182] 0 3
D 1.573750000 _0_ RTR  IFQ 118 cbr 230 [0 0 0 0] ------- [0:30 29:0 30 0] [118] 0 3
s 1.577500000 _0_ AGT  --- 183 cbr 210 [0 0 0 0] ------- [0:30 29:0 32 0] [183] 0 3
D 1.577500000 _0_ RTR  IFQ 119 cbr 230 [0 0 0 0] ------- [0:30 29:0 30 0] [119] 0 3
s 1.581250000 _0_ AGT  --- 184 cbr 210 [0 0 0 0] ------- [0:30 29:0 32 0] [184] 0 3
D 1.581250000 _0_ RTR  IFQ 120 cbr 230 [0 0 0 0] ------- [0:30 29:0 30 0] [120] 0 3
s 1.585000000 _0_ AGT  --- 185 cbr 210 [0 0 0 0] ------- [0:30 29:0 32 0] [185] 0 3
D 1.585000000 _0_ RTR  IFQ 121 cbr 230 [0 0 0 0] ------- [0:30 29:0 30 0] [121] 0 3
s 1.588750000 _0_ AGT  --- 186 cbr 210 [0 0 0 0] ------- [0:30 29:0 32 0] [186] 0 3
D 1.588750000 _0_ RTR  IFQ 122 cbr 230 [0 0 0 0] ------- [0:30 29:0 30 0] [122] 0 3
s 1.592500000 _0_ AGT  --- 187 cbr 210 [0 0 0 0] ------- [0:30 29:0 32 0] [187] 0 3
D 1.592500000 _0_ RTR  IFQ 123 cbr 230 [0 0 0 0] ------- [0:30 29:0 30 0] [123] 0 3
s 1.596250000 _0_ AGT  --- 188 cbr 210 [0 0 0 0] ------- [0:30 29:0 32 0] [188] 0 3
D 1.596250000 _0_ RTR  IFQ 124 cbr 230 [0 0 0 0] ------- [0:30 29:0 30 0] [124] 0 3
s 1.600000000 _0_ AGT  --- 189 cbr 210 [0 0 0 0] ------- [0:30 29:0 32 0] [189] 0 3
D 1.600000000 _0_ RTR  IFQ 125 cbr 230 [0 0 0 0] ------- [0:30 29:0 30 0] [125] 0 3
s 1.603750000 _0_ AGT  --- 190 cbr 210 [0 0 0 0] ------- [0:30 29:0 32 0] [190] 0 3
D 1.603750000 _0_ RTR  IFQ 126 cbr 230 [0 0 0 0] ------- [0:30 29:0 30 0] [126] 0 3
s 1.607500000 _0_ AGT  --- 191 cbr 210 [0 0 0 0] ------- [0:30 29:0 32 0] [191] 0 3
D 1.607500000 _0_ RTR  IFQ 127 cbr 230 [0 0 0 0] ------- [0:30 29:0 30 0] [127] 0 3
s 1.611250000 _0_ AGT  --- 192 cbr 210 [0 0 0 0] ------- [0:30 29:0 32 0] [192] 0 3